single point energy 2_test                                              
FOpt      RAM1                                                        ZDO                 
Number of atoms                            I               31
Info1-9                                    I   N=           9
          42          41           0           0           0         110
           2           8         502
Full Title                                 C   N=           3
single point energy 2_test          
Route                                      C   N=           4
#AM1 FChk NoSymmetry Opt=(ModRedundant,)        
Charge                                     I                0
Multiplicity                               I                1
Number of electrons                        I              102
Number of alpha electrons                  I               51
Number of beta electrons                   I               51
Number of basis functions                  I               97
Number of independent functions            I               97
Number of point charges in /Mol/           I                0
Number of translation vectors              I                0
Atomic numbers                             I   N=          31
           6           7           6           6           7           6
           6           6           6           6           6           7
           6           7           6           6           6           7
           6           6           6           6           1           1
           1           1           1           1           1           1
           1
Nuclear charges                            R   N=          31
  4.00000000E+00  5.00000000E+00  4.00000000E+00  4.00000000E+00  5.00000000E+00
  4.00000000E+00  4.00000000E+00  4.00000000E+00  4.00000000E+00  4.00000000E+00
  4.00000000E+00  5.00000000E+00  4.00000000E+00  5.00000000E+00  4.00000000E+00
  4.00000000E+00  4.00000000E+00  5.00000000E+00  4.00000000E+00  4.00000000E+00
  4.00000000E+00  4.00000000E+00  1.00000000E+00  1.00000000E+00  1.00000000E+00
  1.00000000E+00  1.00000000E+00  1.00000000E+00  1.00000000E+00  1.00000000E+00
  1.00000000E+00
Current cartesian coordinates              R   N=          93
 -1.09300040E+01  2.75536941E+00  2.22983549E-01 -1.13012537E+01  1.67365708E-01
 -4.81651977E-02 -9.33191329E+00 -1.29633225E+00 -2.44242734E-01 -6.69606953E+00
 -3.79834512E-01 -1.97309798E-01 -4.78384542E+00 -1.98971394E+00 -4.07992209E-01
 -2.36090743E+00 -1.03813628E+00 -3.53112063E-01 -2.71120773E-01 -2.68443756E+00
 -5.71193331E-01  2.18302601E+00 -1.70839409E+00 -5.14291228E-01  4.33525802E+00
 -3.30308284E+00 -7.28046465E-01  6.72694846E+00 -2.31008455E+00 -6.68095338E-01
  9.00490095E+00 -3.85211587E+00 -8.78657140E-01  1.12856602E+01 -2.90934252E+00
 -8.21949005E-01  1.14531471E+01 -2.62401995E-01 -5.40376315E-01  9.59364823E+00
  1.36983113E+00 -3.28368521E-01  7.11906448E+00  3.95236338E-01 -3.84730180E-01
  5.05224965E+00  1.98428833E+00 -1.73260390E-01  2.52694954E+00  9.88103096E-01
 -2.30929168E-01  5.46795857E-01  2.59904025E+00 -1.88022305E-02 -1.82509638E+00
  1.64874847E+00 -7.45466306E-02 -3.95952351E+00  3.31581488E+00  1.46646438E-01
 -6.36882697E+00  2.33881780E+00  8.87623443E-02 -8.60545153E+00  3.87383570E+00
  2.97748217E-01 -1.27015860E+01  3.84847049E+00  3.75318926E-01 -9.66421649E+00
 -3.35137350E+00 -4.58820470E-01 -5.73113722E-01 -4.73549789E+00 -7.85937180E-01
  4.03880557E+00 -5.35378433E+00 -9.42864195E-01  8.79786978E+00 -5.92132308E+00
 -1.09722724E+00  1.34170893E+01  4.76969574E-01 -4.99483608E-01  5.31203883E+00
  4.04298976E+00  4.31362044E-02 -3.63591719E+00  5.36259195E+00  3.60505945E-01
 -8.38460617E+00  5.92743744E+00  5.14358585E-01
Number of symbols in /Mol/                 I                0
Redundant internal dimensions              I   N=           4
         175          35          56          84
Redundant internal coordinate indices      I   N=         700
           1           2           0           0           1          22
           0           0           1          23           0           0
           2           3           0           0           3           4
           0           0           3          24           0           0
           4           5           0           0           4          21
           0           0           5           6           0           0
           6           7           0           0           6          19
           0           0           7           8           0           0
           7          25           0           0           8           9
           0           0           8          17           0           0
           9          10           0           0           9          26
           0           0          10          11           0           0
          10          15           0           0          11          12
           0           0          11          27           0           0
          12          13           0           0          13          14
           0           0          13          28           0           0
          14          15           0           0          15          16
           0           0          16          17           0           0
          16          29           0           0          17          18
           0           0          18          19           0           0
          19          20           0           0          20          21
           0           0          20          30           0           0
          21          22           0           0          22          31
           0           0           2           1          22           0
           2           1          23           0          22           1
          23           0           1           2           3           0
           2           3           4           0           2           3
          24           0           4           3          24           0
           3           4           5           0           3           4
          21           0           5           4          21           0
           4           5           6           0           5           6
           7           0           5           6          19           0
           7           6          19           0           6           7
           8           0           6           7          25           0
           8           7          25           0           7           8
           9           0           7           8          17           0
           9           8          17           0           8           9
          10           0           8           9          26           0
          10           9          26           0           9          10
          11           0           9          10          15           0
          11          10          15           0          10          11
          12           0          10          11          27           0
          12          11          27           0          11          12
          13           0          12          13          14           0
          12          13          28           0          14          13
          28           0          13          14          15           0
          10          15          14           0          10          15
          16           0          14          15          16           0
          15          16          17           0          15          16
          29           0          17          16          29           0
           8          17          16           0           8          17
          18           0          16          17          18           0
          17          18          19           0           6          19
          18           0           6          19          20           0
          18          19          20           0          19          20
          21           0          19          20          30           0
          21          20          30           0           4          21
          20           0           4          21          22           0
          20          21          22           0           1          22
          21           0           1          22          31           0
          21          22          31           0          22           1
           2           3          23           1           2           3
           2           1          22          21           2           1
          22          31          23           1          22          21
          23           1          22          31           1           2
           3           4           1           2           3          24
           2           3           4           5           2           3
           4          21          24           3           4           5
          24           3           4          21           3           4
           5           6          21           4           5           6
           3           4          21          20           3           4
          21          22           5           4          21          20
           5           4          21          22           4           5
           6           7           4           5           6          19
           5           6           7           8           5           6
           7          25          19           6           7           8
          19           6           7          25           5           6
          19          18           5           6          19          20
           7           6          19          18           7           6
          19          20           6           7           8           9
           6           7           8          17          25           7
           8           9          25           7           8          17
           7           8           9          10           7           8
           9          26          17           8           9          10
          17           8           9          26           7           8
          17          16           7           8          17          18
           9           8          17          16           9           8
          17          18           8           9          10          11
           8           9          10          15          26           9
          10          11          26           9          10          15
           9          10          11          12           9          10
          11          27          15          10          11          12
          15          10          11          27           9          10
          15          14           9          10          15          16
          11          10          15          14          11          10
          15          16          10          11          12          13
          27          11          12          13          11          12
          13          14          11          12          13          28
          12          13          14          15          28          13
          14          15          13          14          15          10
          13          14          15          16          10          15
          16          17          10          15          16          29
          14          15          16          17          14          15
          16          29          15          16          17           8
          15          16          17          18          29          16
          17           8          29          16          17          18
           8          17          18          19          16          17
          18          19          17          18          19           6
          17          18          19          20           6          19
          20          21           6          19          20          30
          18          19          20          21          18          19
          20          30          19          20          21           4
          19          20          21          22          30          20
          21           4          30          20          21          22
           4          21          22           1           4          21
          22          31          20          21          22           1
          20          21          22          31
Redundant internal coordinates             R   N=         175
  2.62851881E+00  2.58071708E+00  2.08724192E+00  2.46153606E+00  2.79102904E+00
  2.09276457E+00  2.50852544E+00  2.75317914E+00  2.60367823E+00  2.66928373E+00
  2.75391392E+00  2.64172957E+00  2.08426562E+00  2.68715949E+00  2.73307053E+00
  2.59033259E+00  2.08312441E+00  2.75885201E+00  2.74823796E+00  2.46858262E+00
  2.09099337E+00  2.66713877E+00  2.48331804E+00  2.09890718E+00  2.66018353E+00
  2.61563171E+00  2.71529950E+00  2.08628126E+00  2.56146930E+00  2.55578455E+00
  2.71731779E+00  2.60050322E+00  2.08320746E+00  2.72074337E+00  2.07676981E+00
  2.16147101E+00  1.98589849E+00  2.13581581E+00  2.07222845E+00  2.16393050E+00
  2.05447638E+00  2.06477842E+00  2.10337417E+00  2.02445051E+00  2.15536062E+00
  2.06355223E+00  2.09603967E+00  2.14095824E+00  2.04618740E+00  2.09171319E+00
  2.09660606E+00  2.09486605E+00  2.12126226E+00  2.07563101E+00  2.08629204E+00
  2.10618320E+00  2.06966489E+00  2.10733721E+00  2.14877873E+00  2.10770873E+00
  2.02669784E+00  2.15034749E+00  2.07070068E+00  2.06213714E+00  2.02579412E+00
  2.23228560E+00  1.99370287E+00  2.05719683E+00  2.04197957E+00  2.08926599E+00
  2.08705328E+00  2.10686604E+00  2.10630990E+00  2.10537783E+00  2.07149758E+00
  2.07282346E+00  2.13152351E+00  2.07883834E+00  2.07348511E+00  2.14783039E+00
  2.04201330E+00  2.09334162E+00  2.08913534E+00  2.08186146E+00  2.11218850E+00
  2.07535088E+00  2.05712807E+00  2.15070636E+00  2.08716207E+00  2.12629343E+00
  2.06972982E+00 -3.37572972E-06 -3.14159009E+00  1.60345080E-06 -3.14158916E+00
  3.14158782E+00 -2.93995039E-06  2.88390408E-06 -3.14159077E+00  3.14159147E+00
 -7.64474591E-07 -1.75049009E-07 -3.14159241E+00  3.14159253E+00 -5.71901830E-07
  3.14159195E+00 -1.01623297E-06 -2.66976250E-07  3.14159207E+00  3.14159256E+00
  3.14340340E-07 -3.14159197E+00  5.25780879E-07  3.00988702E-07 -3.14159251E+00
  3.14159174E+00  7.33040206E-07 -5.24512407E-07 -3.14159153E+00 -3.14159149E+00
  1.62552478E-07  1.31535986E-06 -3.14159234E+00 -3.14159237E+00  8.11942382E-07
  1.28573795E-06 -3.14159084E+00 -3.14159034E+00 -4.73097201E-07  1.33836984E-06
  3.14159120E+00 -3.14158947E+00 -1.94258798E-06  2.64654020E-06  3.14159017E+00
  3.14158595E+00  1.96582408E-06 -1.79557447E-06 -3.14158578E+00  3.14158608E+00
 -9.30577218E-08 -1.13632761E-05  3.14158777E+00  3.66996542E-05 -3.14156459E+00
 -6.89853486E-05 -3.14151888E+00  5.66702229E-05  3.14150206E+00 -1.36743711E-05
  3.14157242E+00  2.76993308E-06  3.14159043E+00 -3.14158333E+00  4.32400785E-06
 -3.37000229E-06  3.14159199E+00 -3.14159112E+00  4.23518160E-06  2.68634504E-07
  3.14159012E+00  2.36548601E-07  3.14159119E+00 -1.55365598E-06  3.14159249E+00
 -3.14159261E+00  1.42856990E-06  1.35042673E-06 -3.14159097E+00  3.14159260E+00
  2.74359474E-07  6.04002720E-07  3.14159143E+00 -3.14159238E+00 -1.55458466E-06
ZRed-IntVec                                I   N=         175
           0           0           0           0           0           0
           0           0           0           0           0           0
           0           0           0           0           0           0
           0           0           0           0           0           0
           0           0           0           0           0           0
           0           0           0           0           0           0
           0           0           0           0           0           0
           0           0           0           0           0           0
           0           0           0           0           0           0
           0           0           0           0           0           0
           0           0           0           0           0           0
           0           0           0           0           0           0
           0           0           0           0           0           0
           0           0           0           0           0           0
           0           0           0           0           0           0
           0           0           0           0           0           0
           0           0           0           0           0           0
           0           0           0           0           0           0
           0           0           0           0           0           0
           0           0           0           0           0           0
           0           0           0           0           0           0
           0           0           0           0           0           0
           0           0           0           0           0           0
           0           0           0           0           0           0
           0           0           0           0           0           0
           0           0           0           0           0           0
           0           0           0           0           0           0
           0           0           0           0           0           0
           0           0           0           0           0           0
           0
ZRed-FPVec                                 R   N=         175
  0.00000000E+00  0.00000000E+00  0.00000000E+00  0.00000000E+00  0.00000000E+00
  0.00000000E+00  0.00000000E+00  0.00000000E+00  0.00000000E+00  0.00000000E+00
  0.00000000E+00  0.00000000E+00  0.00000000E+00  0.00000000E+00  0.00000000E+00
  0.00000000E+00  0.00000000E+00  0.00000000E+00  0.00000000E+00  0.00000000E+00
  0.00000000E+00  0.00000000E+00  0.00000000E+00  0.00000000E+00  0.00000000E+00
  0.00000000E+00  0.00000000E+00  0.00000000E+00  0.00000000E+00  0.00000000E+00
  0.00000000E+00  0.00000000E+00  0.00000000E+00  0.00000000E+00  0.00000000E+00
  0.00000000E+00  0.00000000E+00  0.00000000E+00  0.00000000E+00  0.00000000E+00
  0.00000000E+00  0.00000000E+00  0.00000000E+00  0.00000000E+00  0.00000000E+00
  0.00000000E+00  0.00000000E+00  0.00000000E+00  0.00000000E+00  0.00000000E+00
  0.00000000E+00  0.00000000E+00  0.00000000E+00  0.00000000E+00  0.00000000E+00
  0.00000000E+00  0.00000000E+00  0.00000000E+00  0.00000000E+00  0.00000000E+00
  0.00000000E+00  0.00000000E+00  0.00000000E+00  0.00000000E+00  0.00000000E+00
  0.00000000E+00  0.00000000E+00  0.00000000E+00  0.00000000E+00  0.00000000E+00
  0.00000000E+00  0.00000000E+00  0.00000000E+00  0.00000000E+00  0.00000000E+00
  0.00000000E+00  0.00000000E+00  0.00000000E+00  0.00000000E+00  0.00000000E+00
  0.00000000E+00  0.00000000E+00  0.00000000E+00  0.00000000E+00  0.00000000E+00
  0.00000000E+00  0.00000000E+00  0.00000000E+00  0.00000000E+00  0.00000000E+00
  0.00000000E+00  0.00000000E+00  0.00000000E+00  0.00000000E+00  0.00000000E+00
  0.00000000E+00  0.00000000E+00  0.00000000E+00  0.00000000E+00  0.00000000E+00
  0.00000000E+00  0.00000000E+00  0.00000000E+00  0.00000000E+00  0.00000000E+00
  0.00000000E+00  0.00000000E+00  0.00000000E+00  0.00000000E+00  0.00000000E+00
  0.00000000E+00  0.00000000E+00  0.00000000E+00  0.00000000E+00  0.00000000E+00
  0.00000000E+00  0.00000000E+00  0.00000000E+00  0.00000000E+00  0.00000000E+00
  0.00000000E+00  0.00000000E+00  0.00000000E+00  0.00000000E+00  0.00000000E+00
  0.00000000E+00  0.00000000E+00  0.00000000E+00  0.00000000E+00  0.00000000E+00
  0.00000000E+00  0.00000000E+00  0.00000000E+00  0.00000000E+00  0.00000000E+00
  0.00000000E+00  0.00000000E+00  0.00000000E+00  0.00000000E+00  0.00000000E+00
  0.00000000E+00  0.00000000E+00  0.00000000E+00  0.00000000E+00  0.00000000E+00
  0.00000000E+00  0.00000000E+00  0.00000000E+00  0.00000000E+00  0.00000000E+00
  0.00000000E+00  0.00000000E+00  0.00000000E+00  0.00000000E+00  0.00000000E+00
  0.00000000E+00  0.00000000E+00  0.00000000E+00  0.00000000E+00  0.00000000E+00
  0.00000000E+00  0.00000000E+00  0.00000000E+00  0.00000000E+00  0.00000000E+00
  0.00000000E+00  0.00000000E+00  0.00000000E+00  0.00000000E+00  0.00000000E+00
  0.00000000E+00  0.00000000E+00  0.00000000E+00  0.00000000E+00  0.00000000E+00
ZRed-Constraint1                           R   N=         175
  2.57122611E+00  2.64117957E+00  2.04423224E+00  2.57035857E+00  2.64127930E+00
  2.04549941E+00  2.57060505E+00  2.66761414E+00  2.57037337E+00  2.63978339E+00
  2.66582731E+00  2.64878932E+00  2.04873612E+00  2.65161357E+00  2.67514886E+00
  2.64969130E+00  2.04958161E+00  2.64324563E+00  2.66475809E+00  2.56722151E+00
  2.04624245E+00  2.56828591E+00  2.56764549E+00  2.04331606E+00  2.56790854E+00
  2.64390048E+00  2.64489341E+00  2.04787596E+00  2.57132596E+00  2.56957698E+00
  2.64103445E+00  2.64782166E+00  2.04852255E+00  2.64672272E+00  2.04724133E+00
  2.09893819E+00  2.08975555E+00  2.09449157E+00  2.12651308E+00  2.09411186E+00
  2.08748050E+00  2.10159294E+00  2.10338904E+00  2.08115441E+00  2.09864185E+00
  2.12052772E+00  2.10337638E+00  2.09630287E+00  2.08350605E+00  2.08975410E+00
  2.08999487E+00  2.10343634E+00  2.11270886E+00  2.07832817E+00  2.09214828E+00
  2.09147316E+00  2.09683611E+00  2.09487604E+00  2.12370890E+00  2.09730072E+00
  2.06217568E+00  2.09175082E+00  2.10805977E+00  2.08337472E+00  2.11392561E+00
  2.09793014E+00  2.09267251E+00  2.09258265E+00  2.11072810E+00  2.08986025E+00
  2.09519261E+00  2.09813245E+00  2.09507761E+00  2.09397126E+00  2.09413644E+00
  2.09517824E+00  2.09483638E+00  2.09317068E+00  2.12383901E+00  2.09610690E+00
  2.08386506E+00  2.10321335E+00  2.08778730E+00  2.09164642E+00  2.10375159E+00
  2.07924582E+00  2.08477439E+00  2.11916509E+00  2.08087868E+00  2.09006817E+00
  2.11223845E+00 -5.25910746E-05 -3.14153825E+00  1.38151927E-05 -3.14155246E+00
  3.14149918E+00 -6.70952694E-05  4.97896988E-05 -3.14153815E+00  3.14159222E+00
 -8.61069244E-06 -5.19116764E-06  3.14157929E+00  3.14158330E+00 -1.10268593E-06
  3.14158337E+00 -2.84129549E-05 -1.74386437E-05  3.14155609E+00 -3.14158063E+00
 -3.26807979E-07 -3.14154979E+00 -6.96905006E-05  5.51180840E-05  3.14153522E+00
  3.14156126E+00  2.03752988E-05 -4.35955188E-05 -3.14158448E+00 -3.14158718E+00
 -3.64212212E-05  1.18911873E-04 -3.14151564E+00 -3.14157655E+00 -7.93557629E-05
  5.83327457E-05  3.14155552E+00 -3.14153610E+00  5.56472089E-06  1.51572572E-05
  3.14155682E+00 -3.14158627E+00 -8.98368974E-05  1.01739902E-04 -3.14158714E+00
  3.14152302E+00 -6.52689555E-05  2.47216776E-05 -3.14156357E+00 -3.14157595E+00
  4.78837912E-05 -7.61733777E-05  3.14154766E+00 -2.19260549E-05  3.14156642E+00
  7.01120949E-05  3.14149006E+00 -1.23275598E-04 -3.14154323E+00  1.26233360E-04
 -3.14149766E+00  2.59743141E-05  3.14157177E+00 -3.14153535E+00  1.04496246E-05
 -5.73066694E-05  3.14158629E+00  3.14158221E+00  4.04923667E-05  6.30414225E-06
  3.14154803E+00  1.27662345E-05  3.14155307E+00 -3.87145417E-05  3.14158492E+00
 -3.14157939E+00  4.42501768E-05  3.72252212E-05 -3.14153591E+00 -3.14158663E+00
  2.55381081E-05  2.58223495E-05  3.14159175E+00 -3.14158641E+00 -2.04780289E-05
ZRed-Constraint2                           R   N=         175
  0.00000000E+00  0.00000000E+00  0.00000000E+00  0.00000000E+00  0.00000000E+00
  0.00000000E+00  0.00000000E+00  0.00000000E+00  0.00000000E+00  0.00000000E+00
  0.00000000E+00  0.00000000E+00  0.00000000E+00  0.00000000E+00  0.00000000E+00
  0.00000000E+00  0.00000000E+00  0.00000000E+00  0.00000000E+00  0.00000000E+00
  0.00000000E+00  0.00000000E+00  0.00000000E+00  0.00000000E+00  0.00000000E+00
  0.00000000E+00  0.00000000E+00  0.00000000E+00  0.00000000E+00  0.00000000E+00
  0.00000000E+00  0.00000000E+00  0.00000000E+00  0.00000000E+00  0.00000000E+00
  0.00000000E+00  0.00000000E+00  0.00000000E+00  0.00000000E+00  0.00000000E+00
  0.00000000E+00  0.00000000E+00  0.00000000E+00  0.00000000E+00  0.00000000E+00
  0.00000000E+00  0.00000000E+00  0.00000000E+00  0.00000000E+00  0.00000000E+00
  0.00000000E+00  0.00000000E+00  0.00000000E+00  0.00000000E+00  0.00000000E+00
  0.00000000E+00  0.00000000E+00  0.00000000E+00  0.00000000E+00  0.00000000E+00
  0.00000000E+00  0.00000000E+00  0.00000000E+00  0.00000000E+00  0.00000000E+00
  0.00000000E+00  0.00000000E+00  0.00000000E+00  0.00000000E+00  0.00000000E+00
  0.00000000E+00  0.00000000E+00  0.00000000E+00  0.00000000E+00  0.00000000E+00
  0.00000000E+00  0.00000000E+00  0.00000000E+00  0.00000000E+00  0.00000000E+00
  0.00000000E+00  0.00000000E+00  0.00000000E+00  0.00000000E+00  0.00000000E+00
  0.00000000E+00  0.00000000E+00  0.00000000E+00  0.00000000E+00  0.00000000E+00
  0.00000000E+00  0.00000000E+00  0.00000000E+00  0.00000000E+00  0.00000000E+00
  0.00000000E+00  0.00000000E+00  0.00000000E+00  0.00000000E+00  0.00000000E+00
  0.00000000E+00  0.00000000E+00  0.00000000E+00  0.00000000E+00  0.00000000E+00
  0.00000000E+00  0.00000000E+00  0.00000000E+00  0.00000000E+00  0.00000000E+00
  0.00000000E+00  0.00000000E+00  0.00000000E+00  0.00000000E+00  0.00000000E+00
  0.00000000E+00  0.00000000E+00  0.00000000E+00  0.00000000E+00  0.00000000E+00
  0.00000000E+00  0.00000000E+00  0.00000000E+00  0.00000000E+00  0.00000000E+00
  0.00000000E+00  0.00000000E+00  0.00000000E+00  0.00000000E+00  0.00000000E+00
  0.00000000E+00  0.00000000E+00  0.00000000E+00  0.00000000E+00  0.00000000E+00
  0.00000000E+00  0.00000000E+00  0.00000000E+00  0.00000000E+00  0.00000000E+00
  0.00000000E+00  0.00000000E+00  0.00000000E+00  0.00000000E+00  0.00000000E+00
  0.00000000E+00  0.00000000E+00  0.00000000E+00  0.00000000E+00  0.00000000E+00
  0.00000000E+00  0.00000000E+00  0.00000000E+00  0.00000000E+00  0.00000000E+00
  0.00000000E+00  0.00000000E+00  0.00000000E+00  0.00000000E+00  0.00000000E+00
  0.00000000E+00  0.00000000E+00  0.00000000E+00  0.00000000E+00  0.00000000E+00
  0.00000000E+00  0.00000000E+00  0.00000000E+00  0.00000000E+00  0.00000000E+00
  0.00000000E+00  0.00000000E+00  0.00000000E+00  0.00000000E+00  0.00000000E+00
Force Field                                I                0
Atom Types                                 C   N=          31
                                                            
                                                            
                                                            
                                                            
                                                            
                                                            
            
Int Atom Types                             I   N=          31
           0           0           0           0           0           0
           0           0           0           0           0           0
           0           0           0           0           0           0
           0           0           0           0           0           0
           0           0           0           0           0           0
           0
MM charges                                 R   N=          31
  0.00000000E+00  0.00000000E+00  0.00000000E+00  0.00000000E+00  0.00000000E+00
  0.00000000E+00  0.00000000E+00  0.00000000E+00  0.00000000E+00  0.00000000E+00
  0.00000000E+00  0.00000000E+00  0.00000000E+00  0.00000000E+00  0.00000000E+00
  0.00000000E+00  0.00000000E+00  0.00000000E+00  0.00000000E+00  0.00000000E+00
  0.00000000E+00  0.00000000E+00  0.00000000E+00  0.00000000E+00  0.00000000E+00
  0.00000000E+00  0.00000000E+00  0.00000000E+00  0.00000000E+00  0.00000000E+00
  0.00000000E+00
Integer atomic weights                     I   N=          31
          12          14          12          12          14          12
          12          12          12          12          12          14
          12          14          12          12          12          14
          12          12          12          12           1           1
           1           1           1           1           1           1
           1
Real atomic weights                        R   N=          31
  1.20000000E+01  1.40030740E+01  1.20000000E+01  1.20000000E+01  1.40030740E+01
  1.20000000E+01  1.20000000E+01  1.20000000E+01  1.20000000E+01  1.20000000E+01
  1.20000000E+01  1.40030740E+01  1.20000000E+01  1.40030740E+01  1.20000000E+01
  1.20000000E+01  1.20000000E+01  1.40030740E+01  1.20000000E+01  1.20000000E+01
  1.20000000E+01  1.20000000E+01  1.00782504E+00  1.00782504E+00  1.00782504E+00
  1.00782504E+00  1.00782504E+00  1.00782504E+00  1.00782504E+00  1.00782504E+00
  1.00782504E+00
Atom fragment info                         I   N=          31
           0           0           0           0           0           0
           0           0           0           0           0           0
           0           0           0           0           0           0
           0           0           0           0           0           0
           0           0           0           0           0           0
           0
Atom residue num                           I   N=          31
           0           0           0           0           0           0
           0           0           0           0           0           0
           0           0           0           0           0           0
           0           0           0           0           0           0
           0           0           0           0           0           0
           0
Nuclear spins                              I   N=          31
           0           2           0           0           2           0
           0           0           0           0           0           2
           0           2           0           0           0           2